LAMMPS (4 May 2022)
log /home/benjamin/Data/LAMMPS/cooling_3000K_50ps.log
