LAMMPS (4 May 2022)
log /home/benjamin/Data/LAMMPS/release_pressure_4000K_3_40A_50ps.log
