LAMMPS (4 May 2022)
log /home/benjamin/Data/LAMMPS/xrd_4000K_3_35A_50ps.log
